<VTKFile type='UnstructuredGrid' version='0.1' byte_order='LittleEndian'>
  <UnstructuredGrid>
    <Piece NumberOfPoints='417'  NumberOfCells='699'>
      <Points>
        <DataArray type = 'Float32' NumberOfComponents='3' format='ascii'>
0.2375 -0.25 0
0.232184 -0.183599 0
0.15 -0.25 0
0.161285 -0.125595 0
0.13607 -0.00513 0
0.117783 -0.0681975 0
0.10317 -0.00844 0
-0.0516125 0.049255 0
-0.0337556 0.0112175 0
-0.0222063 0.0326425 0
0.01467 -0.00956 0
0.00125312 -0.0245875 0
0.00467 -0.00573 0
0.0286675 -0.18989 0
0.00825187 -0.114753 0
-0.092665 -0.12978 0
-0.0389975 -0.06967 0
0.70608 0.07153 0
0.75355 0.164805 0
0.75272 0.06283 0
0.073225 -0.129044 0
-0.0121638 -0.039615 0
0.0047525 -0.06967 0
0.294206 -0.143122 0
0.339244 -0.151325 0
0.356228 -0.102646 0
0.384281 -0.159528 0
0.0072 0.01603 0
-0.0107031 0.0200062 0
0.0008 0.00737 0
1.02808 -0.0228528 0
1.00445 -0.0202673 0
1.01404 -0.0114264 0
0.99184 -0.0140491 0
0.99485 -0.0291081 0
1.06579 -0.00261297 0
1.03991 -0.00701969 0
1.05617 -0.0457056 0
0.979536 -0.12728 0
0.980838 -0.166028 0
0.937005 -0.149234 0
-0.110425 0.08248 0
-0.0362313 0.107107 0
0.049975 0.11739 0
-0.02085 0.16496 0
0.05968 0.04762 0
0.0433725 0.076925 0
0.03677 0.03646 0
0.0878 0.05889 0
-0.0226525 -0.00510375 0
-0.045305 -0.0102075 0
0.0389887 -0.0993569 0
0.60627 0.08684 0
0.553135 0.16842 0
0.55413 0.09302 0
0.50132 0.09796 0
0.95593 0.00383 0
0.958773 -0.0157667 0
0.9318 0.00576 0
0.976728 -0.0247063 0
0.961616 -0.0353634 0
-0.0174081 -0.0223594 0
1.03716 0.0164385 0
1.07541 0.0404797 0
1.03441 0.0398967 0
0.83223 0.01241 0
0.82032 -0.0505675 0
0.7913 0.01451 0
0.298645 -0.192363 0
0.19988 0.08874 0
0.19751 0.17292 0
0.24502 0.09584 0
0.21235 0.00307 0
0.186818 -0.0612625 0
0.17257 -0.00119 0
0.0443444 -0.0556384 0
-0.025 -0.25 0
-0.2 -0.25 0
0.966902 -0.00677836 0
0.064575 0.20748 0
0.15 0.25 0
-0.025 0.25 0
0.123742 0.145155 0
0.1583 0.07992 0
0.1208 0.06982 0
0.97503 0.00221 0
0.96548 0.00302 0
-0.0113263 -0.00255188 0
0 0 0
0.99331 0.002085 0
0.995658 0.00280068 0
0.995315 0.0014625 0
0.99136 0.0213219 0
0.99703 0.0131348 0
0.99033 0.0123259 0
1.02503 0.0235239 0
1.01289 0.0306093 0
1.02277 0.00659959 0
1.00496 0.0218721 0
0.99342 0.0393138 0
0.992736 0.00531433 0
0.9893 0.00333 0
0.989815 0.00782797 0
1.00018 -0.0136459 0
0.933101 -0.0329884 0
0.996489 0.00182034 0
0.998005 0.00351637 0
0.97636 0.156415 0
0.93094 0.101276 0
0.91318 0.203207 0
0.87504 0.123924 0
0.0105831 0.0547837 0
0.0192 0.02581 0
0.937253 -0.199617 0
0.84934 -0.115645 0
0.768582 -0.115872 0
0.991961 -0.203815 0
1.02467 -0.182822 0
0.626775 0.207402 0
0.675 0.25 0
0.85 0.25 0
0.49934 -0.115645 0
0.593583 -0.115872 0
0.58717 -0.182822 0
0.30012 0.01112 0
0.328174 -0.0457628 0
0.3473 0.01425 0
0.39618 0.01639 0
0.99933 -0.0520872 0
0.978733 0.0251844 0
0.981435 0.0429988 0
0.977381 0.0162772 0
0.97603 0.00737 0
0.9576 0.01284 0
0.982922 0.00759898 0
-0.0421513 -0.0399388 0
-0.092665 -0.06728 0
-0.146333 -0.06489 0
-0.2 0 0
-0.2 -0.125 0
0.986111 0.00546449 0
1.01063 0.0592621 0
1.0355 0.14154 0
1.025 0.25 0
1.13289 -0.00130648 0
0.427784 -0.109145 0
0.5875 0.25 0
0.5 0.25 0
0.29315 0.10086 0
0.334335 0.17676 0
0.34367 0.10352 0
0.3959 0.1036 0
0.4125 0.25 0
0.325 0.25 0
0.70065 0.0178 0
0.669878 -0.04865 0
0.65193 0.0188 0
0.687825 -0.1161 0
1.00241 0.0154567 0
0.999866 0.00904127 0
1.08425 -0.0685584 0
-0.077865 0.0361362 0
0.877361 -0.0611522 0
1.02402 -0.132198 0
1.00381 -0.0750663 0
0.956969 -0.0995083 0
0.90615 0.02724 0
0.918545 0.0642578 0
0.87357 0.03571 0
0.952692 0.0714427 0
0.963675 0.0295944 0
0.945915 0.01619 0
0.926387 0.0418989 0
0.93423 0.01954 0
0.958184 0.0505185 0
0.98684 0.0786275 0
0.946207 0.0350293 0
0.4742 0.17576 0
0.4484 0.10152 0
0.998734 0.0689448 0
1.01117 0.110084 0
1.04783 0.0714172 0
1.08503 0.0835723 0
1.0295 0.0907505 0
1.09465 0.126665 0
1.02999 -0.0603859 0
1.02904 -0.0416194 0
1.00428 -0.00844262 0
1.00837 -0.00323934 0
1.00317 -0.0033758 0
1.00056 -0.00344403 0
1.00028 -0.00172202 0
1.00435 -0.0012608 0
1.00554 0.000854199 0
0.725162 -0.18305 0
1.2 -0.125 0
1.13425 -0.193558 0
1.2 -0.25 0
1.0685 -0.137117 0
1.11233 -0.0914112 0
1.00885 0.0138229 0
1.00914 0.00331393 0
1.00412 0.00290097 0
1.00577 0.0093853 0
1.0027 0.00494773 0
1.0184 -0.00241341 0
1.01273 0.00577366 0
1.00745 0.00634961 0
0.959293 -0.0674359 0
0.934403 -0.0717369 0
0.992375 -0.00300727 0
0.98963 -0.0046134 0
0.99592 -0.00702453 0
0.99388 -0.0105368 0
1.16645 0.0618468 0
1.2 0 0
1.2 0.125 0
1.01418 -0.0468533 0
0.9816 0.117521 0
1.01412 0.0798476 0
0.849732 -0.195418 0
0.893296 -0.157631 0
0.776556 -0.198681 0
0.82795 -0.214312 0
0.806167 -0.233206 0
0.812948 -0.157163 0
0.838975 -0.232156 0
0.85 -0.25 0
0.80625 -0.25 0
0.5 -0.25 0
0.49967 -0.182822 0
0.456002 -0.199617 0
0.4125 -0.25 0
0.412335 -0.216411 0
0.256717 -0.216799 0
0.328862 -0.223184 0
0.313754 -0.207773 0
0.354641 -0.204764 0
0.315973 -0.232393 0
0.346942 -0.178045 0
0.320486 -0.241197 0
0.325 -0.25 0
0.303125 -0.25 0
0.303084 -0.241603 0
0.36875 -0.25 0
0.337869 -0.236592 0
0.346875 -0.25 0
1.04675 -0.193558 0
1.02492 -0.217581 0
1.07963 -0.221779 0
1.1125 -0.25 0
1.05227 -0.21968 0
1.02496 -0.23379 0
1.06875 -0.25 0
1.06051 -0.23484 0
1.014 -0.229592 0
1.0195 -0.239796 0
1.00308 -0.241603 0
1.00312 -0.25 0
1.025 -0.25 0
0.49868 0.01871 0
0.473205 -0.0489625 0
0.44707 0.01772 0
0.986605 -0.226908 0
0.983928 -0.238454 0
0.964607 -0.201716 0
0.972321 -0.24134 0
0.98125 -0.25 0
0.949045 -0.234518 0
0.943273 -0.242259 0
0.937376 -0.224808 0
0.915563 -0.237404 0
0.89375 -0.25 0
0.893626 -0.224808 0
0.9375 -0.25 0
0.960714 -0.244227 0
0.960683 -0.237929 0
0.975606 -0.214312 0
0.948438 -0.25 0
0.970312 -0.25 0
0.959375 -0.25 0
0.926408 -0.218511 0
0.915274 -0.178624 0
0.92647 -0.231106 0
0.950991 -0.213262 0
0.769528 -0.22434 0
0.7625 -0.25 0
0.700081 -0.216525 0
0.675 -0.25 0
0.5875 -0.25 0
0.637498 -0.149461 0
0.277681 -0.204581 0
0.2799 -0.229201 0
0.302623 -0.221587 0
0.291492 -0.235402 0
0.263195 -0.163361 0
0.257496 -0.0535127 0
0.25498 0.00729 0
0.225006 -0.112312 0
0.533394 -0.0824175 0
0.5504 0.01925 0
0.784375 -0.25 0
0.261255 0.21146 0
0.2375 0.25 0
0.98883 0.00101 0
0.987858 -0.00260477 0
0.990927 0.00082 0
0.986885 -0.00621953 0
0.690163 0.186104 0
0.814295 0.144364 0
0.79647 0.05378 0
0.992187 -0.25 0
0.747345 -0.203695 0
0.994883 0.00922457 0
0.996444 0.00637047 0
-0.085265 -0.0155719 0
1.0001 -0.00773357 0
0.99796 -0.00351227 0
0.976893 -0.00649895 0
0.979412 -0.00244447 0
0.871679 -0.210113 0
0.631085 -0.216411 0
0.999003 0.00175818 0
1.00085 0.00335296 0
1.00206 0.00145048 0
1 0 0
0.989363 -0.0101343 0
0.976811 -0.0156026 0
0.984284 -0.0193777 0
0.986823 -0.014756 0
0.9375 0.25 0
1.02434 -0.15751 0
0.673631 0.132857 0
0.6571 0.07961 0
1.15617 -0.0457056 0
1.04688 -0.25 0
0.0868587 0.131272 0
0.286371 -0.242701 0
0.2587 -0.239601 0
0.269975 -0.2448 0
0.259375 -0.25 0
0.0810634 -0.061918 0
0.948741 -0.242259 0
0.361695 -0.227382 0
0.757931 -0.0497662 0
0.74728 0.01634 0
-0.0205147 0.0520194 0
-0.00581156 0.0437131 0
1.00202 0.0492879 0
0.292187 -0.25 0
0.28125 -0.25 0
1.01339 -0.00282637 0
0.398308 -0.18797 0
0.441893 -0.154381 0
0.02973 -0.01157 0
0.0370372 -0.0336042 0
0.0497 -0.01192 0
0.891871 -0.0936909 0
0.8369 0.04464 0
0.85597 0.0842819 0
1.2 0.25 0
1.1125 0.25 0
-0.00503656 -0.0135697 0
0.263468 0.152199 0
1.01581 0.0102112 0
1.01079 0.00979826 0
-0.155213 0.04124 0
-0.2 0.125 0
-0.0222294 0.0156119 0
1.04925 -0.0987514 0
-0.110425 0.20748 0
-0.2 0.25 0
1.01087 0.0222161 0
0.597626 -0.0482912 0
0.60167 0.01929 0
0.998161 0.00129909 0
0.99732 0.00084 0
0.99722 0.00025 0
0.997584 -0.000610574 0
0.996171 0.000345 0
0.996541 -0.00153613 0
0.999121 -0.00261714 0
0.999194 -0.000934905 0
0.997831 -0.00207664 0
0.998512 -0.00150577 0
0.998106 -0.000147794 0
0.995167 -0.00325977 0
0.993025 0.00063 0
0.993749 -0.00128363 0
0.995123 0.00044 0
0.995145 -0.00140988 0
0.0191452 -0.0290959 0
0.873466 -0.0254911 0
0.90288 0.00791 0
0.86957 0.01017 0
0.905231 -0.0470703 0
0.925221 -0.0130767 0
0.91734 0.006835 0
0.270313 -0.25 0
0.278173 -0.243751 0
0.0776717 -0.036359 0
0.07428 -0.0108 0
0.984894 -0.000497383 0
0.98193 0.00161 0
0.998936 0.00627882 0
0.99866 0.00042 0
0.996317 0.00115125 0
0.995816 0.00130687 0
0.985982 0.00434 0
0.982665 0.00535 0
0.979347 0.00636 0
0.984324 0.004845 0
0.97848 0.00191 0
0.98538 0.00131 0
0.99861 0.000125 0
0.997915 0.0001875 0
0.99799 0.00063 0
        </DataArray>
      </Points>
      <Cells>
        <DataArray type='Int32' Name='connectivity' format='ascii'>
0 1 2
2 1 3
4 5 6
7 8 9
10 11 12
13 14 15
15 14 16
17 18 19
5 20 3
3 20 2
2 20 13
13 20 14
21 22 16
16 22 14
23 24 25
25 24 26
27 28 29
30 31 32
33 31 34
35 36 37
37 36 30
38 39 40
41 42 7
43 42 44
45 46 47
42 46 43
43 46 48
48 46 45
8 49 50
14 51 22
20 51 14
52 53 54
54 53 55
56 57 58
57 59 60
50 61 49
11 61 21
36 62 35
35 62 63
63 62 64
65 66 67
23 68 24
69 70 71
72 73 74
74 73 4
4 73 5
5 73 3
22 75 51
15 76 13
13 76 2
77 76 15
57 78 56
44 79 43
80 81 79
79 81 44
79 82 80
80 82 70
70 82 69
69 82 83
83 82 84
85 86 78
78 86 56
29 87 88
28 87 29
89 90 91
92 93 94
64 95 62
96 95 64
62 97 36
95 97 62
92 98 99
99 98 96
90 100 89
89 100 101
101 100 102
31 103 33
57 104 60
90 105 106
107 108 109
109 108 110
46 111 42
112 111 47
47 111 46
40 113 39
114 115 66
39 116 117
52 118 53
18 119 120
121 122 123
124 125 126
126 125 127
127 125 25
25 125 23
34 128 59
59 128 60
92 129 99
99 129 130
129 131 92
92 131 94
132 131 133
131 134 94
94 134 102
21 135 16
50 135 61
61 135 21
15 136 137
135 136 16
16 136 15
138 139 137
137 139 15
15 139 77
102 140 134
101 140 102
64 141 96
107 142 143
35 144 63
25 145 26
127 145 25
53 146 118
118 146 119
147 146 53
148 149 150
150 149 151
152 149 153
154 155 156
122 155 157
93 158 159
98 158 92
92 158 93
37 160 35
35 160 144
41 161 7
7 161 8
8 161 50
114 162 66
38 163 164
40 165 38
38 165 164
166 167 168
110 167 108
108 169 167
129 170 130
171 170 133
133 170 131
131 170 129
167 172 166
166 172 173
169 172 167
130 174 170
172 174 169
169 174 175
175 174 130
170 176 174
174 176 172
172 176 173
173 176 171
171 176 170
53 177 147
147 177 152
152 177 149
149 177 151
151 177 178
178 177 55
55 177 53
175 179 130
142 180 107
64 181 141
182 181 63
63 181 64
181 183 182
182 183 184
184 183 142
142 183 180
185 186 37
37 186 30
32 187 188
188 187 189
103 187 31
31 187 32
190 191 189
188 192 193
191 192 189
189 192 188
115 194 157
195 196 197
198 196 199
199 196 195
158 200 98
193 201 188
202 201 193
159 203 204
200 203 158
158 203 159
36 205 97
97 205 206
32 205 30
30 205 36
201 207 202
202 207 204
204 207 203
206 207 201
60 208 128
128 208 164
164 208 165
165 208 209
209 208 104
104 208 60
210 211 212
33 213 103
212 213 211
144 214 215
215 214 216
216 214 184
184 214 182
182 214 63
63 214 144
128 217 34
34 217 31
31 217 30
30 217 186
186 217 185
185 217 164
164 217 128
108 218 107
107 218 180
180 218 175
175 218 169
169 218 108
180 219 183
183 219 181
181 219 141
141 219 179
179 219 175
175 219 180
114 220 221
194 222 115
223 222 224
115 225 222
222 225 223
223 225 220
220 225 114
114 225 115
223 226 220
227 226 228
228 226 224
224 226 223
229 230 123
123 230 121
230 231 229
229 231 232
232 231 233
1 234 0
235 236 237
238 236 235
237 239 236
236 239 68
68 239 24
24 239 26
238 240 235
241 240 242
242 240 243
243 240 238
233 244 232
240 245 235
246 245 241
241 245 240
247 248 117
117 248 116
196 249 198
198 249 247
249 250 196
196 250 197
247 251 249
252 251 248
248 251 247
250 253 249
249 254 253
251 254 249
116 255 248
248 255 252
252 256 255
255 256 257
257 256 258
258 256 259
259 256 252
260 261 262
262 261 127
127 261 145
145 261 121
257 263 255
255 263 116
263 264 257
116 265 39
39 265 113
264 266 267
263 266 264
268 269 270
271 272 273
273 272 227
274 272 271
275 276 266
265 277 116
116 277 263
263 277 266
266 277 276
274 278 269
267 279 266
266 279 275
275 279 280
273 281 271
270 281 113
221 282 40
40 282 113
113 282 281
281 282 273
269 283 270
270 283 281
281 283 271
271 283 274
274 283 269
113 284 270
270 284 268
268 284 276
276 284 277
277 284 265
265 284 113
224 285 222
286 287 288
229 289 123
123 290 122
122 290 157
157 290 194
194 290 287
234 291 1
292 291 234
236 293 238
238 293 243
243 293 294
294 293 292
292 293 291
291 293 68
68 293 236
23 295 68
68 295 291
291 295 1
23 296 125
125 296 124
124 296 297
297 296 72
72 296 73
73 298 3
3 298 1
1 298 295
295 298 23
23 298 296
296 298 73
121 299 261
261 299 260
260 299 300
122 299 121
286 301 285
285 301 224
224 301 228
153 302 149
70 303 302
302 303 153
80 303 70
304 305 306
306 305 210
210 305 211
211 305 307
18 308 119
119 308 118
120 309 18
18 309 19
19 309 310
110 309 109
109 309 120
257 311 264
264 311 267
258 311 257
222 312 285
285 312 286
286 312 287
287 312 194
194 312 222
93 313 94
94 313 102
102 313 100
159 313 93
100 314 313
313 314 159
106 314 90
90 314 100
50 315 161
137 315 136
136 315 135
135 315 50
187 316 103
103 316 213
213 316 212
212 316 317
317 316 190
190 316 189
189 316 187
78 318 85
85 319 318
318 319 307
226 320 220
220 320 221
221 320 282
282 320 273
273 320 227
227 320 226
123 321 289
289 321 288
288 321 287
287 321 290
290 321 123
322 323 106
204 323 202
202 324 323
323 324 322
322 324 325
325 324 191
191 324 192
192 324 193
193 324 202
213 326 33
307 326 211
211 326 213
318 327 78
78 327 57
57 327 59
34 328 59
59 328 327
33 328 34
327 329 328
328 329 33
33 329 326
326 329 307
307 329 318
318 329 327
143 330 107
107 330 109
109 330 120
198 331 163
163 331 38
38 331 39
39 331 117
117 331 247
247 331 198
118 332 308
308 332 18
18 332 17
17 332 333
333 332 52
52 332 118
215 334 144
144 334 160
160 334 199
199 334 195
195 334 215
253 335 254
254 335 251
251 335 252
252 335 259
82 336 79
79 336 43
43 336 48
48 336 84
84 336 82
292 337 294
292 338 234
234 338 0
338 339 292
339 340 338
338 340 0
51 341 75
5 341 20
20 341 51
269 342 278
278 342 280
280 342 275
275 342 276
276 342 268
268 342 269
244 343 233
237 343 235
235 343 245
245 343 246
246 343 244
66 344 115
115 344 157
157 344 155
155 344 154
154 344 345
345 344 67
67 344 66
42 346 111
9 346 7
7 346 42
28 347 9
9 347 346
346 347 111
111 347 112
112 347 27
27 347 28
96 348 141
141 348 179
179 348 130
130 348 99
99 348 96
242 349 243
243 349 294
294 349 337
337 349 350
188 351 201
201 351 206
206 351 205
205 351 32
32 351 188
233 352 231
26 352 239
239 352 237
237 352 343
343 352 233
121 353 145
145 353 26
26 353 352
352 353 231
231 353 230
230 353 121
354 355 356
162 357 114
114 357 221
221 357 40
40 357 165
165 357 209
358 359 168
168 359 167
167 359 110
110 359 309
309 359 310
310 359 358
360 361 216
216 361 184
184 361 142
142 361 143
11 362 12
12 362 88
88 362 87
87 362 49
49 362 61
61 362 11
71 363 148
148 363 149
149 363 302
302 363 70
70 363 71
206 364 97
97 364 95
207 365 206
206 365 364
364 365 200
200 365 203
203 365 207
41 366 161
161 366 315
315 366 137
137 366 138
138 367 366
366 367 41
28 368 9
9 368 8
8 368 49
49 368 87
87 368 28
163 369 198
198 369 199
199 369 160
160 369 37
37 369 185
185 369 164
164 369 163
44 370 81
81 370 371
371 370 367
367 370 41
41 370 42
42 370 44
98 372 200
200 372 364
364 372 95
95 372 96
96 372 98
155 373 122
122 373 299
299 373 300
300 373 374
374 373 156
156 373 155
322 375 106
106 375 105
105 375 376
377 378 379
379 378 380
191 381 190
190 381 317
191 382 325
381 382 191
317 383 381
378 383 380
380 383 317
381 384 383
383 384 378
378 384 385
385 384 382
382 384 381
210 386 212
212 386 317
317 386 380
387 388 389
386 388 210
210 388 306
306 388 387
389 390 388
388 390 386
386 390 380
380 390 379
379 390 389
10 391 11
11 391 21
21 391 22
22 391 75
75 391 355
355 391 354
354 391 10
66 392 162
393 392 394
394 392 65
65 392 66
209 395 104
392 395 162
162 395 357
357 395 209
58 396 397
397 396 393
393 396 392
392 396 395
395 396 104
104 396 57
57 396 58
340 398 339
292 399 339
339 399 398
398 399 350
350 399 337
337 399 292
75 400 341
341 400 5
5 400 6
6 400 401
401 400 356
356 400 355
355 400 75
305 402 304
403 402 319
319 402 307
307 402 305
159 404 314
314 404 106
106 404 323
323 404 204
204 404 159
325 405 322
322 405 375
105 406 376
91 407 90
90 407 105
105 407 406
101 408 140
409 410 134
134 410 131
131 410 132
409 411 134
134 411 140
140 411 408
85 412 319
319 412 403
304 413 402
402 413 403
382 414 385
325 414 382
378 415 385
385 415 414
377 415 378
376 416 375
375 416 405
        </DataArray>
        <DataArray type='Int32' Name='offsets' format='ascii'>
3
6
9
12
15
18
21
24
27
30
33
36
39
42
45
48
51
54
57
60
63
66
69
72
75
78
81
84
87
90
93
96
99
102
105
108
111
114
117
120
123
126
129
132
135
138
141
144
147
150
153
156
159
162
165
168
171
174
177
180
183
186
189
192
195
198
201
204
207
210
213
216
219
222
225
228
231
234
237
240
243
246
249
252
255
258
261
264
267
270
273
276
279
282
285
288
291
294
297
300
303
306
309
312
315
318
321
324
327
330
333
336
339
342
345
348
351
354
357
360
363
366
369
372
375
378
381
384
387
390
393
396
399
402
405
408
411
414
417
420
423
426
429
432
435
438
441
444
447
450
453
456
459
462
465
468
471
474
477
480
483
486
489
492
495
498
501
504
507
510
513
516
519
522
525
528
531
534
537
540
543
546
549
552
555
558
561
564
567
570
573
576
579
582
585
588
591
594
597
600
603
606
609
612
615
618
621
624
627
630
633
636
639
642
645
648
651
654
657
660
663
666
669
672
675
678
681
684
687
690
693
696
699
702
705
708
711
714
717
720
723
726
729
732
735
738
741
744
747
750
753
756
759
762
765
768
771
774
777
780
783
786
789
792
795
798
801
804
807
810
813
816
819
822
825
828
831
834
837
840
843
846
849
852
855
858
861
864
867
870
873
876
879
882
885
888
891
894
897
900
903
906
909
912
915
918
921
924
927
930
933
936
939
942
945
948
951
954
957
960
963
966
969
972
975
978
981
984
987
990
993
996
999
1002
1005
1008
1011
1014
1017
1020
1023
1026
1029
1032
1035
1038
1041
1044
1047
1050
1053
1056
1059
1062
1065
1068
1071
1074
1077
1080
1083
1086
1089
1092
1095
1098
1101
1104
1107
1110
1113
1116
1119
1122
1125
1128
1131
1134
1137
1140
1143
1146
1149
1152
1155
1158
1161
1164
1167
1170
1173
1176
1179
1182
1185
1188
1191
1194
1197
1200
1203
1206
1209
1212
1215
1218
1221
1224
1227
1230
1233
1236
1239
1242
1245
1248
1251
1254
1257
1260
1263
1266
1269
1272
1275
1278
1281
1284
1287
1290
1293
1296
1299
1302
1305
1308
1311
1314
1317
1320
1323
1326
1329
1332
1335
1338
1341
1344
1347
1350
1353
1356
1359
1362
1365
1368
1371
1374
1377
1380
1383
1386
1389
1392
1395
1398
1401
1404
1407
1410
1413
1416
1419
1422
1425
1428
1431
1434
1437
1440
1443
1446
1449
1452
1455
1458
1461
1464
1467
1470
1473
1476
1479
1482
1485
1488
1491
1494
1497
1500
1503
1506
1509
1512
1515
1518
1521
1524
1527
1530
1533
1536
1539
1542
1545
1548
1551
1554
1557
1560
1563
1566
1569
1572
1575
1578
1581
1584
1587
1590
1593
1596
1599
1602
1605
1608
1611
1614
1617
1620
1623
1626
1629
1632
1635
1638
1641
1644
1647
1650
1653
1656
1659
1662
1665
1668
1671
1674
1677
1680
1683
1686
1689
1692
1695
1698
1701
1704
1707
1710
1713
1716
1719
1722
1725
1728
1731
1734
1737
1740
1743
1746
1749
1752
1755
1758
1761
1764
1767
1770
1773
1776
1779
1782
1785
1788
1791
1794
1797
1800
1803
1806
1809
1812
1815
1818
1821
1824
1827
1830
1833
1836
1839
1842
1845
1848
1851
1854
1857
1860
1863
1866
1869
1872
1875
1878
1881
1884
1887
1890
1893
1896
1899
1902
1905
1908
1911
1914
1917
1920
1923
1926
1929
1932
1935
1938
1941
1944
1947
1950
1953
1956
1959
1962
1965
1968
1971
1974
1977
1980
1983
1986
1989
1992
1995
1998
2001
2004
2007
2010
2013
2016
2019
2022
2025
2028
2031
2034
2037
2040
2043
2046
2049
2052
2055
2058
2061
2064
2067
2070
2073
2076
2079
2082
2085
2088
2091
2094
2097
        </DataArray>
        <DataArray type='UInt8' Name='types' format='ascii'>
5
5
5
5
5
5
5
5
5
5
5
5
5
5
5
5
5
5
5
5
5
5
5
5
5
5
5
5
5
5
5
5
5
5
5
5
5
5
5
5
5
5
5
5
5
5
5
5
5
5
5
5
5
5
5
5
5
5
5
5
5
5
5
5
5
5
5
5
5
5
5
5
5
5
5
5
5
5
5
5
5
5
5
5
5
5
5
5
5
5
5
5
5
5
5
5
5
5
5
5
5
5
5
5
5
5
5
5
5
5
5
5
5
5
5
5
5
5
5
5
5
5
5
5
5
5
5
5
5
5
5
5
5
5
5
5
5
5
5
5
5
5
5
5
5
5
5
5
5
5
5
5
5
5
5
5
5
5
5
5
5
5
5
5
5
5
5
5
5
5
5
5
5
5
5
5
5
5
5
5
5
5
5
5
5
5
5
5
5
5
5
5
5
5
5
5
5
5
5
5
5
5
5
5
5
5
5
5
5
5
5
5
5
5
5
5
5
5
5
5
5
5
5
5
5
5
5
5
5
5
5
5
5
5
5
5
5
5
5
5
5
5
5
5
5
5
5
5
5
5
5
5
5
5
5
5
5
5
5
5
5
5
5
5
5
5
5
5
5
5
5
5
5
5
5
5
5
5
5
5
5
5
5
5
5
5
5
5
5
5
5
5
5
5
5
5
5
5
5
5
5
5
5
5
5
5
5
5
5
5
5
5
5
5
5
5
5
5
5
5
5
5
5
5
5
5
5
5
5
5
5
5
5
5
5
5
5
5
5
5
5
5
5
5
5
5
5
5
5
5
5
5
5
5
5
5
5
5
5
5
5
5
5
5
5
5
5
5
5
5
5
5
5
5
5
5
5
5
5
5
5
5
5
5
5
5
5
5
5
5
5
5
5
5
5
5
5
5
5
5
5
5
5
5
5
5
5
5
5
5
5
5
5
5
5
5
5
5
5
5
5
5
5
5
5
5
5
5
5
5
5
5
5
5
5
5
5
5
5
5
5
5
5
5
5
5
5
5
5
5
5
5
5
5
5
5
5
5
5
5
5
5
5
5
5
5
5
5
5
5
5
5
5
5
5
5
5
5
5
5
5
5
5
5
5
5
5
5
5
5
5
5
5
5
5
5
5
5
5
5
5
5
5
5
5
5
5
5
5
5
5
5
5
5
5
5
5
5
5
5
5
5
5
5
5
5
5
5
5
5
5
5
5
5
5
5
5
5
5
5
5
5
5
5
5
5
5
5
5
5
5
5
5
5
5
5
5
5
5
5
5
5
5
5
5
5
5
5
5
5
5
5
5
5
5
5
5
5
5
5
5
5
5
5
5
5
5
5
5
5
5
5
5
5
5
5
5
5
5
5
5
5
5
5
5
5
5
5
5
5
5
5
5
5
5
5
5
5
5
5
5
5
5
5
5
5
5
5
5
5
5
5
5
5
5
5
5
5
5
5
5
5
5
5
5
5
5
5
5
5
5
5
5
5
5
5
5
5
5
5
5
5
5
5
5
5
5
5
5
5
5
5
5
5
5
5
5
5
5
5
5
5
5
5
5
5
5
5
5
5
5
5
5
5
5
5
5
5
5
        </DataArray>
      </Cells>
<PointData>
  <DataArray type = 'Float32' Name='Erreur' format='ascii'>
0
0
0
0
0
0
0
0
0
0
0
0
0
0
0
0
0
0
0
0
0
0
0
0
0
0
0
0
0
0
0
0
0
0
0
0
0
0
0
0
0
0
0
0
0
0
0
0
0
0
0
0
0
0
0
0
0
0
0
0
0
0
0
0
0
0
0
0
0
0
0
0
0
0
0
0
0
0
0
0
0
0
0
0
0
0
0
0
0
0
0
0
0
0
0
0
0
0
0
0
0
0
0
0
0
0
0
0
0
0
0
0
0
0
0
0
0
0
0
0
0
0
0
0
0
0
0
0
0
0
0
0
0
0
0
0
0
0
0
0
0
0
0
0
0
0
0
0
0
0
0
0
0
0
0
0
0
0
0
0
0
0
0
0
0
0
0
0
0
0
0
0
0
0
0
0
0
0
0
0
0
0
0
0
0
0
0
0
0
0
0
0
0
0
0
0
0
0
0
0
0
0
0
0
0
0
0
0
0
0
0
0
0
0
0
0
0
0
0
0
0
0
0
0
0
0
0
0
0
0
0
0
0
0
0
0
0
0
0
0
0
0
0
0
0
0
0
0
0
0
0
0
0
0
0
0
0
0
0
0
0
0
0
0
0
0
0
0
0
0
0
0
0
0
0
0
0
0
0
0
0
0
0
0
0
0
0
0
0
0
0
0
0
0
0
0
0
0
0
0
0
0
0
0
0
0
0
0
0
0
0
0
0
0
0
0
0
0
0
0
0
0
0
0
0
0
0
0
0
0
0
0
0
0
0
0
0
0
0
0
0
0
0
0
0
0
0
0
0
0
0
0
0
0
0
0
0
0
0
0
0
0
0
0
0
0
0
0
0
0
0
0
0
0
0
0
0
0
0
0
0
0
0
0
0
0
0
0
0
0
0
0
0
0
0
0
0
0
0
0
0
0
0
0
0
0
0
0
0
0
0
0
0
0
0
0
0
  </DataArray>
</PointData>
<CellData>
</CellData>
<UserData>
  <DataArray type = 'Float32' Name='CompteurTemps' format='ascii'>
0
  </DataArray>
  <DataArray type = 'Float32' Name='Temps' format='ascii'>
0
  </DataArray>
</UserData>
    </Piece>
  </UnstructuredGrid>
</VTKFile>
