<VTKFile type='UnstructuredGrid' version='0.1' byte_order='LittleEndian'>
  <UnstructuredGrid>
    <Piece NumberOfPoints='477'  NumberOfCells='883'>
      <Points>
        <DataArray type = 'Float32' NumberOfComponents='3' format='ascii'>
-0.5 0.2 0
-0.25 0.495225 0
-0.610305 0.454775 0
0.5 1 0
0.25 0.895225 0
0 1 0
5.55112e-17 0.790451 0
-0.5 -0.2 0
-0.319847 -0.547613 0
-0.610305 -0.454775 0
-0.25 0.895225 0
-0.5 1 0
0.610305 0.454775 0
0.305153 0.622613 0
0.5 0.2 0
-0.476224 0.614887 0
0.617275 -0.451224 0
0.428032 -0.562224 0
0.5 -0.2 0
0.457729 0.758919 0
1 0.5 0
0.863501 0.569851 0
0.947613 0.430153 0
0.5 -1 0
0.569851 -0.863501 0
0.430153 -0.947613 0
-1 0.5 0
-0.863501 0.569851 0
-0.947613 0.430153 0
0.40432 -0.768363 0
0.23879 -0.673225 0
0.56524 -0.648387 0
0.675912 -0.576835 0
-0.538724 0.748806 0
-0.601224 0.882725 0
-0.527576 -0.601194 0
0.534017 0.606847 0
0.578865 0.75446 0
-0.545038 -0.808322 0
-0.536307 -0.704758 0
-0.444847 -0.747613 0
-1 -0.5 0
-0.805153 -0.477387 0
-0.947613 -0.569847 0
-0.665458 -0.582162 0
-0.767245 -0.613695 0
-0.645229 -0.869032 0
-0.697615 -0.934516 0
-0.569847 -0.947613 0
-0.574325 0.596749 0
-0.672427 0.578611 0
0.808637 -0.475612 0
0.774247 -0.614517 0
0.778959 0.442464 0
-0.778959 0.442464 0
1 1 0
1 0.75 0
0.889695 0.895225 0
0.88568 0.740264 0
0.973806 0.715076 0
0.886903 -0.767462 0
1 -0.75 0
0.973806 -0.784924 0
0.715076 -0.973806 0
0.763285 -0.933017 0
0.75 -1 0
-0.75 1 0
-0.816573 0.911997 0
-0.742275 0.898776 0
0.875 0.947613 0
0.819847 0.895225 0
-0.671749 0.890751 0
0.811495 -0.892228 0
0.756643 -0.866509 0
0.887687 0.817745 0
0.637394 -0.684499 0
0.656653 -0.630667 0
-0.610904 0.812202 0
-0.620585 0.741678 0
0.642464 -0.918654 0
0.625 -1 0
1 0.625 0
0.849199 -0.829845 0
0.915672 -0.885913 0
-0.703149 0.844152 0
0.75 0.895225 0
0.75 1 0
0.799618 0.842838 0
-0.611905 -0.678072 0
0.699553 -0.892581 0
-0.617824 -0.732479 0
-0.623743 -0.786887 0
-0.767964 0.574231 0
-0.821445 0.6397 0
-0.703488 0.640529 0
-0.762467 0.640115 0
0.767964 0.574231 0
0.821445 0.6397 0
0.758982 0.637115 0
-0.634486 -0.827959 0
0.71545 -0.622592 0
-0.831268 0.807223 0
-0.843452 0.741269 0
-0.883146 0.823995 0
-0.886903 0.732538 0
-0.597455 0.669213 0
-0.650472 0.654871 0
-0.791012 0.854775 0
0.667851 -0.853529 0
0.636149 -0.814476 0
-0.846389 -0.827573 0
-0.873195 -0.788786 0
-0.895225 -0.889695 0
-0.9 -0.75 0
-0.884516 -0.697615 0
-1 -0.75 0
-0.869032 -0.645229 0
-0.824211 -0.677389 0
-0.7 0.75 0
-0.661516 0.753564 0
-0.702447 0.765451 0
0.567545 -0.755944 0
0.636772 -0.749487 0
-0.660727 -0.699341 0
-0.797553 -0.765451 0
-0.836597 -0.769393 0
-0.8 -0.75 0
0.842228 -0.766456 0
0.610305 0.895225 0
0.704964 0.866266 0
0.659927 0.837307 0
0.790451 -0.779389 0
0.75 -0.765451 0
0.779389 -0.790451 0
0.765451 -0.797553 0
0.75 -0.8 0
0.734549 -0.797553 0
0.720611 -0.790451 0
-0.709549 0.720611 0
-0.75 0.734549 0
-0.720611 0.709549 0
-0.734549 0.702447 0
-0.75 0.7 0
-0.765451 0.702447 0
-0.779389 0.709549 0
-0.75 -0.8 0
-0.733949 -0.781502 0
-0.734549 -0.797553 0
-0.720611 -0.790451 0
-0.709549 -0.779389 0
0.75 0.7 0
0.766051 0.718498 0
0.765451 0.702447 0
0.779389 0.709549 0
0.790451 0.720611 0
0.843653 0.830291 0
0.814294 -0.810148 0
-0.666646 -0.783138 0
-0.635529 0.698274 0
-0.697613 0.0301527 0
-0.875 1 0
-0.908287 0.955999 0
-1 1 0
-0.895716 0.889997 0
0.709549 0.779389 0
0.690269 0.813879 0
0.720611 0.790451 0
0.640656 0.744504 0
0.665822 0.697058 0
0.75 -0.7 0
0.732725 -0.661296 0
0.734549 -0.702447 0
0.6887 -0.816459 0
-0.854174 0.686119 0
-0.712049 0.675039 0
1 -1 0
0.957836 -0.942957 0
1 -0.875 0
-0.709549 -0.720611 0
-0.721749 -0.751056 0
-0.702447 -0.734549 0
-0.7 -0.75 0
-0.702447 -0.765451 0
0.790451 0.779389 0
0.778251 0.748944 0
0.797553 0.765451 0
0.8 0.75 0
0.797553 0.734549 0
0.865263 0.781438 0
0.84284 0.745132 0
0.886605 -0.936408 0
0.75 0.847613 0
-0.800417 0.674625 0
-0.736904 -0.833629 0
-0.723807 -0.867258 0
-0.785098 -0.847415 0
-0.954143 0.915499 0
-0.765751 -0.773476 0
-0.765451 -0.797553 0
-0.779389 -0.790451 0
-0.790451 -0.779389 0
0.734249 0.726524 0
0.734549 0.702447 0
0.720611 0.709549 0
0.709549 0.720611 0
-0.648522 0.725919 0
0.817052 0.80484 0
0.779389 0.790451 0
0.897626 0.677388 0
0.818144 0.708103 0
0.793448 0.671074 0
0.825986 -0.680874 0
0.823415 -0.633358 0
0.872583 -0.652198 0
0.800117 -0.647695 0
-0.658912 -0.74124 0
0.761047 -0.832031 0
-0.657027 0.828177 0
-0.63621 0.782883 0
-0.683288 0.803783 0
-0.709549 0.779389 0
-0.720611 0.790451 0
-0.7436 -0.726752 0
-0.720611 -0.709549 0
-0.734549 -0.702447 0
-0.75 -0.7 0
0.7564 0.773248 0
0.765451 0.797553 0
0.75 0.8 0
0.712769 0.676029 0
0.690988 0.649611 0
-0.679147 -0.847609 0
-0.672896 -0.815373 0
-0.75 0.8 0
-0.770506 0.827388 0
-0.765451 0.797553 0
-0.779389 0.790451 0
-0.822313 0.703365 0
-0.797553 0.734549 0
-0.790451 0.720611 0
-0.841034 -0.716082 0
-0.779389 -0.709549 0
-0.8018 -0.693469 0
-0.790451 -0.720611 0
-0.758622 -0.656848 0
-0.723063 -0.654117 0
-0.687504 -0.651386 0
0.669298 -0.789963 0
0.702447 0.734549 0
0.671552 0.739527 0
0.7 0.75 0
-0.734549 0.797553 0
-0.718849 0.820852 0
0.7 -0.75 0
0.726224 -0.75 0
0.702447 -0.765451 0
0.709549 -0.779389 0
0.702447 -0.734549 0
-0.8 0.75 0
-0.773776 0.75 0
-0.797553 0.765451 0
0.779389 -0.709549 0
0.802688 -0.695211 0
0.790451 -0.720611 0
-0.674115 -0.675364 0
0.770225 -0.743031 0
0.797553 -0.765451 0
0.8 -0.75 0
0.797553 -0.734549 0
-0.729775 0.756969 0
-0.702447 0.734549 0
-0.673789 0.686657 0
-0.782244 -0.818933 0
-0.815744 -0.837494 0
0.879743 -0.70983 0
0.860985 -0.738143 0
0.821114 -0.758228 0
0.782784 -0.675071 0
0.765451 -0.702447 0
-0.737258 0.657577 0
0.776215 0.654095 0
0.650292 0.790906 0
0.676369 0.778178 0
0.702447 0.765451 0
-1 -0.25 0
-0.947613 -0.163597 0
-1 -0.1875 0
-0.752765 -0.297235 0
-0.902576 -0.363694 0
-0.895225 -0.139695 0
-0.823995 -0.218465 0
-0.947613 -0.0698473 0
-1 -0.0625 0
-1 0 0
-0.921419 -0.104771 0
-1 0.25 0
-0.848806 0.0150763 0
-0.760804 -0.094156 0
-0.885113 -0.0448473 0
-0.25 -1 0
-0.163597 -0.947613 0
-0.1875 -1 0
0 -1 0
-0.0625 -1 0
-0.0698473 -0.947613 0
-0.139695 -0.895225 0
-0.104771 -0.921419 0
-0.0405287 -0.610419 0
0.0495477 -0.784225 0
0.25 -1 0
0.0247738 -0.892112 0
-0.0901117 -0.752822 0
-0.0326689 -0.822467 0
-0.781442 0.65737 0
-1 -0.125 0
-0.973806 -0.0974237 0
-0.986903 -0.142462 0
-0.0974237 -0.973806 0
-0.125 -1 0
-0.142462 -0.986903 0
-0.675485 0.730234 0
0.701323 -0.68541 0
0.669921 -0.709524 0
0.709549 -0.720611 0
0.720611 -0.709549 0
-0.685138 -0.709976 0
-0.797553 -0.734549 0
-0.781652 -0.754013 0
0.718348 0.745987 0
0.653346 -0.729506 0
-0.736532 -0.677059 0
0.784869 0.818434 0
0.653035 -0.769725 0
0.730386 -0.726224 0
-0.769614 0.773776 0
-0.790451 0.779389 0
1 0 0
1 -0.25 0
0.895225 -0.139695 0
0.375 -1 0
1 0.375 0
-0.75 -1 0
-0.625 -1 0
-0.5 -1 0
-1 -0.625 0
1 -0.625 0
0.947613 -0.569847 0
1 -0.5 0
-1 0.375 0
-0.88948 0.346232 0
0.244395 -0.836612 0
0.75 0.1 0
0.88948 0.346232 0
1 0.25 0
0.6875 -1 0
-0.973806 0.715076 0
-1 0.6875 0
-1 0.75 0
1 0.6875 0
-0.15625 -1 0
0.875 -1 0
0.84375 -1 0
0.857538 -0.986903 0
-1 -0.15625 0
-1 0.875 0
-1 0.84375 0
-0.986903 0.857538 0
1 -0.8125 0
-1 0.625 0
-0.93175 0.597425 0
0.787893 -0.966509 0
0.8125 -1 0
0.834516 -0.939566 0
-0.941573 0.786997 0
-0.935025 0.840766 0
-0.970787 0.799749 0
-1 0.8125 0
-0.81441 0.786337 0
0.78767 -0.821089 0
-0.838816 -0.742738 0
-0.625 1 0
0.722671 -0.841484 0
-0.743629 0.678788 0
-0.7049 -0.824501 0
-0.596517 -0.591678 0
-0.638682 -0.630117 0
-1 -0.875 0
-1 -1 0
-1 -0.8125 0
0.720134 0.830746 0
0.734549 0.797553 0
0.779449 0.68676 0
0.823508 -0.969783 0
-0.875 -1 0
-0.822613 -0.944847 0
-0.821726 0.745635 0
0.687686 0.708834 0
-0.77321 -0.906053 0
0.704655 -0.803455 0
-0.803097 -0.808442 0
-0.692919 0.680848 0
-0.91399 0.700598 0
0.802372 -0.794769 0
0.820196 0.73984 0
0.735875 0.656572 0
0.685873 -0.777707 0
0.686184 -0.722037 0
-0.821417 -0.704775 0
-0.819847 -0.788917 0
-0.960964 0.849152 0
-0.754675 -0.750114 0
0.745325 0.749886 0
0.843486 -0.709508 0
0.8323 -0.733868 0
0.72861 -0.819518 0
-0.662779 -0.762189 0
-0.819178 -0.891171 0
0.229736 -0.405209 0
0.625 1 0
-0.271135 -0.91071 0
0.823087 -0.70236 0
-0.557443 -0.877967 0
-0.375 -1 0
-0.385568 -0.955355 0
-0.415208 -0.851484 0
-0.292271 -0.821419 0
-0.691223 -0.797381 0
0.901288 -0.826688 0
0.767838 -0.722739 0
-0.732162 0.777261 0
-1 0.9375 0
-0.944584 0.878133 0
-0.761495 -0.71815 0
-0.765451 -0.702447 0
0.738505 0.78185 0
0.603222 0.592729 0
0.672427 0.578611 0
0.6875 1 0
0.767434 0.833023 0
0.720196 0.576421 0
0.694632 0.448619 0
0.81974 0.223116 0
0.757186 0.335868 0
0.773462 0.508347 0
0.878125 -0.52273 0
0.75625 -0.295459 0
0.904319 -0.362806 0
-0.3125 -1 0
-0.0225367 -0.919863 0
0.916418 -0.971478 0
0.9375 -1 0
0.534017 0.827072 0
0.757662 0.671666 0
-0.114903 -0.824024 0
-0.306059 -0.684516 0
-0.173294 -0.647467 0
-0.791416 -0.667118 0
-0.778434 -0.684783 0
0.872072 -0.961656 0
-0.837092 -0.561308 0
-0.818138 -0.629462 0
0.829946 0.774986 0
-0.203587 -0.822721 0
-0.159924 -0.273806 0
0.25 -0.1 0
-0.25 0.1 0
0.0762882 0.550879 0
-0.125 0.247613 0
0.152576 0.311306 0
0 -0.2 0
0 0 0
-0.25 -0.2 0
0.25 -0.2 0
0 0.2 0
0.25 0.2 0
-0.25 0.2 0
-0.125 0.2 0
        </DataArray>
      </Points>
      <Cells>
        <DataArray type='Int32' Name='connectivity' format='ascii'>
0 1 2
3 4 5
5 4 6
7 8 9
5 10 11
1 10 6
6 10 5
12 13 14
6 13 4
2 15 1
1 15 10
16 17 18
13 19 4
4 19 3
20 21 22
23 24 25
26 27 28
25 29 24
17 29 30
29 31 17
17 31 16
16 31 32
10 33 15
34 33 11
11 33 10
8 35 9
19 36 13
13 36 12
19 37 36
38 39 40
40 39 35
41 42 43
44 42 9
42 45 44
46 47 48
2 49 50
15 49 2
16 51 32
32 52 51
21 53 22
0 54 2
2 54 50
27 54 28
55 56 57
58 56 59
60 61 62
63 64 65
66 67 68
57 69 55
69 70 57
66 71 68
72 73 64
57 74 56
56 74 58
75 76 31
31 76 32
33 77 78
34 77 33
79 80 24
24 80 23
20 81 21
72 82 83
68 84 71
85 86 70
70 86 69
69 86 55
70 87 85
35 88 39
64 89 73
79 89 63
63 89 64
39 90 88
91 90 38
38 90 39
50 92 54
54 92 27
27 92 93
94 92 50
93 95 92
92 95 94
21 96 97
97 98 96
91 99 38
32 100 76
52 100 32
101 102 103
103 102 104
78 105 33
33 105 15
15 105 49
94 106 50
50 106 49
49 106 105
68 107 67
67 107 103
103 107 101
89 108 79
79 108 24
24 108 109
110 111 112
113 114 115
116 114 117
118 119 120
31 121 29
29 121 24
24 121 109
75 121 31
109 122 121
121 122 75
90 123 88
124 125 126
82 127 60
128 129 130
131 132 133
133 132 134
134 132 135
135 132 136
136 132 137
138 139 140
140 139 141
141 139 142
142 139 143
143 139 144
145 146 147
147 146 148
148 146 149
150 151 152
152 151 153
153 151 154
87 155 70
70 155 57
57 155 74
127 156 82
91 157 99
105 158 106
78 158 105
0 159 7
67 160 161
161 160 162
66 160 67
161 163 67
67 163 103
164 165 166
129 165 130
167 168 37
169 170 171
100 170 52
109 172 108
102 173 104
140 174 141
175 176 177
177 176 83
178 179 180
180 179 181
181 179 182
182 179 149
149 179 146
183 184 185
185 184 186
186 184 187
187 184 154
154 184 151
58 188 189
155 188 74
74 188 58
83 190 72
176 190 83
85 191 87
129 191 85
93 192 173
144 192 143
145 193 147
194 193 195
161 196 163
146 197 145
145 197 198
198 197 199
199 197 200
151 201 150
150 201 202
202 201 203
203 201 204
158 205 78
78 205 119
155 206 87
207 206 183
188 206 155
58 208 59
81 208 21
21 208 97
189 209 58
58 209 208
208 209 97
97 209 210
153 209 154
154 209 187
211 212 213
52 214 212
212 214 211
123 215 90
181 215 180
134 216 135
71 217 84
77 217 34
34 217 71
119 218 78
78 218 77
77 218 217
84 219 217
217 219 218
218 219 119
119 219 120
120 219 220
220 219 221
179 222 178
178 222 223
223 222 224
224 222 225
184 226 183
183 226 207
207 226 227
227 226 228
203 229 202
230 229 168
46 231 99
194 231 47
47 231 46
99 232 231
157 232 99
233 234 235
235 234 236
101 234 107
107 234 68
68 234 84
173 237 102
238 237 239
239 237 144
144 237 192
192 237 173
117 240 114
114 240 113
241 242 243
244 245 45
45 245 44
44 245 246
109 247 172
248 249 250
167 249 168
251 252 221
221 252 219
219 252 84
84 252 234
234 252 233
233 252 251
253 254 255
255 254 256
256 254 137
137 254 132
257 254 253
258 259 238
238 259 239
239 259 144
144 259 139
260 259 258
261 262 263
88 264 123
245 264 246
254 265 132
132 265 131
131 265 266
266 265 267
267 265 268
268 265 263
259 269 139
139 269 138
138 269 270
270 269 118
118 269 120
120 269 220
158 271 106
205 271 158
198 272 199
273 272 195
195 272 193
193 272 145
145 272 198
61 274 60
60 275 274
127 275 60
266 276 267
170 277 169
169 277 278
278 277 261
261 277 262
262 277 211
211 277 214
214 277 52
52 277 170
174 279 94
94 279 95
97 280 210
98 280 97
37 281 167
165 281 130
281 282 165
165 282 164
164 282 283
283 282 250
250 282 249
249 282 167
167 282 281
284 285 286
7 287 9
9 287 42
42 288 41
41 288 284
287 288 42
289 290 285
285 290 284
284 290 288
288 290 287
291 292 293
285 294 289
295 296 293
159 297 7
7 297 287
287 297 290
290 297 289
296 297 159
294 298 291
291 298 293
293 298 296
296 298 297
297 298 289
289 298 294
299 300 301
302 303 304
305 306 300
30 307 308
309 310 302
308 311 307
311 312 308
308 312 310
192 313 93
93 313 95
143 313 192
314 315 292
292 315 291
291 315 294
294 315 285
285 315 316
316 315 314
304 317 303
303 317 318
318 317 319
319 317 300
300 317 306
306 317 304
119 320 205
205 320 271
271 320 138
138 320 270
270 320 118
118 320 119
75 321 322
323 321 324
324 321 171
171 321 170
170 321 100
100 321 76
76 321 75
180 325 178
178 325 223
223 325 264
264 325 123
123 325 215
215 325 180
326 327 126
126 327 124
124 327 200
200 327 197
243 327 326
283 328 250
250 328 248
248 328 204
204 328 201
164 328 283
322 329 75
75 329 122
225 330 224
224 330 223
223 330 264
264 330 245
245 330 244
207 331 227
87 331 206
206 331 207
247 332 109
109 332 122
122 332 329
329 332 253
324 333 171
171 333 169
265 333 254
254 333 257
257 333 323
323 333 324
236 334 235
235 334 233
269 334 259
259 334 260
260 334 335
335 334 236
336 337 338
23 339 25
22 340 20
341 342 47
47 342 48
48 342 343
41 344 43
43 344 116
116 344 114
114 344 115
61 345 274
274 345 213
213 345 346
346 345 347
26 348 28
28 349 54
54 349 0
0 349 159
159 349 296
296 349 295
295 349 348
348 349 28
29 350 30
30 350 308
308 350 310
310 350 309
309 350 339
339 350 25
25 350 29
338 351 336
14 351 18
53 352 22
22 352 340
340 352 353
80 354 79
79 354 63
63 354 65
355 356 357
56 358 59
59 358 208
208 358 81
318 359 319
319 359 300
300 359 301
360 361 362
314 363 316
316 363 285
285 363 286
364 365 366
61 367 62
368 369 26
26 369 27
27 369 93
93 369 173
65 370 371
64 370 65
72 372 190
370 372 64
64 372 72
104 373 103
357 373 355
103 374 163
373 374 103
373 375 357
357 375 376
374 375 373
260 377 335
335 377 236
236 377 234
234 377 101
101 377 102
156 378 82
82 378 72
72 378 73
73 378 216
216 378 134
134 378 133
113 379 240
326 379 126
126 379 125
125 379 111
111 379 113
34 380 71
71 380 66
11 380 34
73 381 89
89 381 108
108 381 172
216 381 73
141 382 142
142 382 143
143 382 313
313 382 95
95 382 279
279 382 174
174 382 141
231 383 232
148 383 147
147 383 193
193 383 194
194 383 231
9 384 35
35 384 88
44 384 9
44 385 246
246 385 264
264 385 88
88 385 384
384 385 44
112 386 387
386 388 112
112 388 111
111 388 113
113 388 115
191 389 129
129 389 165
165 389 166
166 389 390
390 389 228
228 389 191
153 391 152
280 391 210
210 391 209
209 391 153
371 392 361
361 392 362
372 392 370
370 392 371
341 393 394
394 393 112
112 393 387
258 395 238
238 395 237
237 395 102
102 395 377
377 395 260
260 395 258
248 396 204
204 396 203
203 396 229
229 396 168
168 396 249
249 396 248
194 397 47
47 397 341
341 397 394
195 397 194
256 398 137
172 398 247
200 399 199
199 399 272
272 399 273
273 399 110
174 400 94
94 400 106
106 400 271
271 400 138
138 400 140
140 400 174
104 401 173
173 401 369
369 401 368
368 401 356
356 401 355
355 401 373
373 401 104
131 402 133
133 402 378
378 402 156
156 402 127
127 402 276
276 402 266
266 402 131
187 403 186
189 403 209
209 403 187
229 404 230
202 404 229
255 405 256
256 405 398
398 405 247
247 405 332
332 405 253
253 405 255
257 406 323
323 406 321
321 406 322
322 406 329
329 406 253
253 406 257
243 407 242
242 407 117
117 407 240
240 407 379
379 407 326
326 407 243
399 408 200
200 408 124
124 408 125
125 408 111
111 408 110
110 408 399
374 409 375
375 409 376
376 409 365
365 409 366
222 410 179
179 410 146
146 410 197
197 410 327
226 411 184
184 411 151
151 411 201
201 411 328
274 412 275
211 412 213
213 412 274
275 413 412
268 413 267
267 413 276
276 413 127
127 413 275
381 414 216
216 414 135
135 414 136
136 414 137
137 414 398
398 414 172
172 414 381
157 415 91
91 415 90
90 415 215
215 415 181
181 415 182
182 415 157
394 416 112
112 416 110
110 416 273
273 416 195
195 416 397
397 416 394
17 417 18
307 417 30
30 417 17
128 418 3
305 419 300
300 419 299
412 420 211
211 420 262
262 420 263
263 420 268
268 420 413
413 420 412
46 421 48
48 421 343
38 421 99
99 421 46
343 422 423
40 424 425
425 424 419
419 424 423
423 424 343
343 424 421
421 424 38
38 424 40
232 426 157
157 426 182
182 426 149
149 426 148
148 426 383
383 426 232
62 427 60
60 427 82
82 427 83
83 427 177
177 427 367
367 427 62
278 428 261
261 428 263
263 428 265
265 428 333
333 428 169
169 428 278
251 429 221
221 429 220
220 429 269
269 429 334
334 429 233
233 429 251
364 430 196
196 430 161
161 430 162
163 431 374
374 431 409
409 431 366
366 431 364
364 431 196
196 431 163
241 432 433
433 432 225
225 432 222
222 432 410
410 432 327
327 432 243
243 432 241
166 434 390
390 434 228
228 434 226
226 434 411
411 434 328
328 434 164
164 434 166
12 435 36
36 435 37
37 435 168
168 435 230
230 435 436
436 435 12
418 437 128
128 437 129
129 437 85
85 437 86
191 438 228
228 438 227
227 438 331
331 438 87
87 438 191
436 439 230
230 439 404
404 439 98
98 439 96
12 440 436
436 440 439
353 441 352
351 441 336
336 441 353
440 442 53
53 442 352
352 442 441
441 442 351
351 442 14
14 442 12
12 442 440
96 443 21
21 443 53
53 443 440
440 443 439
439 443 96
347 444 346
346 444 213
213 444 212
212 444 52
52 444 51
16 445 18
18 445 351
351 445 338
51 445 16
337 446 347
347 446 444
444 446 51
51 446 445
445 446 338
338 446 337
423 447 422
299 447 419
419 447 423
302 448 310
310 448 312
312 448 306
306 448 304
304 448 302
190 449 176
176 450 449
449 450 360
175 450 176
3 451 19
19 451 37
37 451 281
281 451 130
130 451 128
128 451 3
391 452 280
280 452 98
98 452 404
404 452 202
202 452 150
150 452 152
152 452 391
311 453 312
312 453 306
306 453 305
425 454 40
40 454 35
35 454 8
8 455 454
311 455 307
307 455 8
45 456 244
242 456 117
244 457 456
456 457 242
242 457 241
241 457 433
433 457 225
225 457 330
330 457 244
190 458 372
372 458 392
392 458 362
362 458 360
360 458 449
449 458 190
43 459 42
42 459 45
116 459 43
456 460 45
45 460 459
459 460 116
116 460 117
117 460 456
206 461 188
188 461 189
189 461 403
403 461 186
186 461 185
185 461 183
183 461 206
305 462 453
453 462 311
311 462 455
455 462 454
454 462 425
425 462 419
419 462 305
307 463 8
14 464 18
7 465 0
6 466 1
1 466 467
467 466 468
468 466 13
13 466 6
464 469 470
463 469 307
307 469 417
8 471 463
463 471 469
469 471 470
470 471 465
465 471 7
7 471 8
18 472 464
464 472 469
469 472 417
417 472 18
468 473 467
13 474 468
468 474 473
473 474 470
470 474 464
464 474 14
14 474 13
467 475 1
1 475 0
0 475 465
467 476 473
473 476 470
470 476 465
465 476 475
475 476 467
        </DataArray>
        <DataArray type='Int32' Name='offsets' format='ascii'>
3
6
9
12
15
18
21
24
27
30
33
36
39
42
45
48
51
54
57
60
63
66
69
72
75
78
81
84
87
90
93
96
99
102
105
108
111
114
117
120
123
126
129
132
135
138
141
144
147
150
153
156
159
162
165
168
171
174
177
180
183
186
189
192
195
198
201
204
207
210
213
216
219
222
225
228
231
234
237
240
243
246
249
252
255
258
261
264
267
270
273
276
279
282
285
288
291
294
297
300
303
306
309
312
315
318
321
324
327
330
333
336
339
342
345
348
351
354
357
360
363
366
369
372
375
378
381
384
387
390
393
396
399
402
405
408
411
414
417
420
423
426
429
432
435
438
441
444
447
450
453
456
459
462
465
468
471
474
477
480
483
486
489
492
495
498
501
504
507
510
513
516
519
522
525
528
531
534
537
540
543
546
549
552
555
558
561
564
567
570
573
576
579
582
585
588
591
594
597
600
603
606
609
612
615
618
621
624
627
630
633
636
639
642
645
648
651
654
657
660
663
666
669
672
675
678
681
684
687
690
693
696
699
702
705
708
711
714
717
720
723
726
729
732
735
738
741
744
747
750
753
756
759
762
765
768
771
774
777
780
783
786
789
792
795
798
801
804
807
810
813
816
819
822
825
828
831
834
837
840
843
846
849
852
855
858
861
864
867
870
873
876
879
882
885
888
891
894
897
900
903
906
909
912
915
918
921
924
927
930
933
936
939
942
945
948
951
954
957
960
963
966
969
972
975
978
981
984
987
990
993
996
999
1002
1005
1008
1011
1014
1017
1020
1023
1026
1029
1032
1035
1038
1041
1044
1047
1050
1053
1056
1059
1062
1065
1068
1071
1074
1077
1080
1083
1086
1089
1092
1095
1098
1101
1104
1107
1110
1113
1116
1119
1122
1125
1128
1131
1134
1137
1140
1143
1146
1149
1152
1155
1158
1161
1164
1167
1170
1173
1176
1179
1182
1185
1188
1191
1194
1197
1200
1203
1206
1209
1212
1215
1218
1221
1224
1227
1230
1233
1236
1239
1242
1245
1248
1251
1254
1257
1260
1263
1266
1269
1272
1275
1278
1281
1284
1287
1290
1293
1296
1299
1302
1305
1308
1311
1314
1317
1320
1323
1326
1329
1332
1335
1338
1341
1344
1347
1350
1353
1356
1359
1362
1365
1368
1371
1374
1377
1380
1383
1386
1389
1392
1395
1398
1401
1404
1407
1410
1413
1416
1419
1422
1425
1428
1431
1434
1437
1440
1443
1446
1449
1452
1455
1458
1461
1464
1467
1470
1473
1476
1479
1482
1485
1488
1491
1494
1497
1500
1503
1506
1509
1512
1515
1518
1521
1524
1527
1530
1533
1536
1539
1542
1545
1548
1551
1554
1557
1560
1563
1566
1569
1572
1575
1578
1581
1584
1587
1590
1593
1596
1599
1602
1605
1608
1611
1614
1617
1620
1623
1626
1629
1632
1635
1638
1641
1644
1647
1650
1653
1656
1659
1662
1665
1668
1671
1674
1677
1680
1683
1686
1689
1692
1695
1698
1701
1704
1707
1710
1713
1716
1719
1722
1725
1728
1731
1734
1737
1740
1743
1746
1749
1752
1755
1758
1761
1764
1767
1770
1773
1776
1779
1782
1785
1788
1791
1794
1797
1800
1803
1806
1809
1812
1815
1818
1821
1824
1827
1830
1833
1836
1839
1842
1845
1848
1851
1854
1857
1860
1863
1866
1869
1872
1875
1878
1881
1884
1887
1890
1893
1896
1899
1902
1905
1908
1911
1914
1917
1920
1923
1926
1929
1932
1935
1938
1941
1944
1947
1950
1953
1956
1959
1962
1965
1968
1971
1974
1977
1980
1983
1986
1989
1992
1995
1998
2001
2004
2007
2010
2013
2016
2019
2022
2025
2028
2031
2034
2037
2040
2043
2046
2049
2052
2055
2058
2061
2064
2067
2070
2073
2076
2079
2082
2085
2088
2091
2094
2097
2100
2103
2106
2109
2112
2115
2118
2121
2124
2127
2130
2133
2136
2139
2142
2145
2148
2151
2154
2157
2160
2163
2166
2169
2172
2175
2178
2181
2184
2187
2190
2193
2196
2199
2202
2205
2208
2211
2214
2217
2220
2223
2226
2229
2232
2235
2238
2241
2244
2247
2250
2253
2256
2259
2262
2265
2268
2271
2274
2277
2280
2283
2286
2289
2292
2295
2298
2301
2304
2307
2310
2313
2316
2319
2322
2325
2328
2331
2334
2337
2340
2343
2346
2349
2352
2355
2358
2361
2364
2367
2370
2373
2376
2379
2382
2385
2388
2391
2394
2397
2400
2403
2406
2409
2412
2415
2418
2421
2424
2427
2430
2433
2436
2439
2442
2445
2448
2451
2454
2457
2460
2463
2466
2469
2472
2475
2478
2481
2484
2487
2490
2493
2496
2499
2502
2505
2508
2511
2514
2517
2520
2523
2526
2529
2532
2535
2538
2541
2544
2547
2550
2553
2556
2559
2562
2565
2568
2571
2574
2577
2580
2583
2586
2589
2592
2595
2598
2601
2604
2607
2610
2613
2616
2619
2622
2625
2628
2631
2634
2637
2640
2643
2646
2649
        </DataArray>
        <DataArray type='UInt8' Name='types' format='ascii'>
5
5
5
5
5
5
5
5
5
5
5
5
5
5
5
5
5
5
5
5
5
5
5
5
5
5
5
5
5
5
5
5
5
5
5
5
5
5
5
5
5
5
5
5
5
5
5
5
5
5
5
5
5
5
5
5
5
5
5
5
5
5
5
5
5
5
5
5
5
5
5
5
5
5
5
5
5
5
5
5
5
5
5
5
5
5
5
5
5
5
5
5
5
5
5
5
5
5
5
5
5
5
5
5
5
5
5
5
5
5
5
5
5
5
5
5
5
5
5
5
5
5
5
5
5
5
5
5
5
5
5
5
5
5
5
5
5
5
5
5
5
5
5
5
5
5
5
5
5
5
5
5
5
5
5
5
5
5
5
5
5
5
5
5
5
5
5
5
5
5
5
5
5
5
5
5
5
5
5
5
5
5
5
5
5
5
5
5
5
5
5
5
5
5
5
5
5
5
5
5
5
5
5
5
5
5
5
5
5
5
5
5
5
5
5
5
5
5
5
5
5
5
5
5
5
5
5
5
5
5
5
5
5
5
5
5
5
5
5
5
5
5
5
5
5
5
5
5
5
5
5
5
5
5
5
5
5
5
5
5
5
5
5
5
5
5
5
5
5
5
5
5
5
5
5
5
5
5
5
5
5
5
5
5
5
5
5
5
5
5
5
5
5
5
5
5
5
5
5
5
5
5
5
5
5
5
5
5
5
5
5
5
5
5
5
5
5
5
5
5
5
5
5
5
5
5
5
5
5
5
5
5
5
5
5
5
5
5
5
5
5
5
5
5
5
5
5
5
5
5
5
5
5
5
5
5
5
5
5
5
5
5
5
5
5
5
5
5
5
5
5
5
5
5
5
5
5
5
5
5
5
5
5
5
5
5
5
5
5
5
5
5
5
5
5
5
5
5
5
5
5
5
5
5
5
5
5
5
5
5
5
5
5
5
5
5
5
5
5
5
5
5
5
5
5
5
5
5
5
5
5
5
5
5
5
5
5
5
5
5
5
5
5
5
5
5
5
5
5
5
5
5
5
5
5
5
5
5
5
5
5
5
5
5
5
5
5
5
5
5
5
5
5
5
5
5
5
5
5
5
5
5
5
5
5
5
5
5
5
5
5
5
5
5
5
5
5
5
5
5
5
5
5
5
5
5
5
5
5
5
5
5
5
5
5
5
5
5
5
5
5
5
5
5
5
5
5
5
5
5
5
5
5
5
5
5
5
5
5
5
5
5
5
5
5
5
5
5
5
5
5
5
5
5
5
5
5
5
5
5
5
5
5
5
5
5
5
5
5
5
5
5
5
5
5
5
5
5
5
5
5
5
5
5
5
5
5
5
5
5
5
5
5
5
5
5
5
5
5
5
5
5
5
5
5
5
5
5
5
5
5
5
5
5
5
5
5
5
5
5
5
5
5
5
5
5
5
5
5
5
5
5
5
5
5
5
5
5
5
5
5
5
5
5
5
5
5
5
5
5
5
5
5
5
5
5
5
5
5
5
5
5
5
5
5
5
5
5
5
5
5
5
5
5
5
5
5
5
5
5
5
5
5
5
5
5
5
5
5
5
5
5
5
5
5
5
5
5
5
5
5
5
5
5
5
5
5
5
5
5
5
5
5
5
5
5
5
5
5
5
5
5
5
5
5
5
5
5
5
5
5
5
5
5
5
5
5
5
5
5
5
5
5
5
5
5
5
5
5
5
5
5
5
5
5
5
5
5
5
5
5
5
5
5
5
5
5
5
5
5
5
5
5
5
5
5
5
5
5
5
5
5
5
5
5
5
5
5
5
5
5
5
5
5
5
5
5
5
5
5
5
5
5
5
5
5
5
5
5
5
5
5
5
5
5
5
5
5
5
5
5
5
5
5
5
5
5
5
5
5
5
5
5
5
5
5
5
5
5
5
5
5
5
5
5
5
5
5
5
5
5
5
5
5
5
5
5
5
5
5
5
5
5
5
5
5
5
5
5
5
5
5
5
5
5
5
5
5
5
5
5
5
5
        </DataArray>
      </Cells>
<PointData>
  <DataArray type = 'Float32' Name='Erreur' format='ascii'>
0
0
0
0
0
0
0
0
0
0
0
0
0
0
0
0
0
0
0
0
0
0
0
0
0
0
0
0
0
0
0
0
0
0
0
0
0
0
0
0
0
0
0
0
0
0
0
0
0
0
0
0
0
0
0
0
0
0
0
0
0
0
0
0
0
0
0
0
0
0
0
0
0
0
0
0
0
0
0
0
0
0
0
0
0
0
0
0
0
0
0
0
0
0
0
0
0
0
0
0
0
0
0
0
0
0
0
0
0
0
0
0
0
0
0
0
0
0
0
0
0
0
0
0
0
0
0
0
0
0
0
0
0
0
0
0
0
0
0
0
0
0
0
0
0
0
0
0
0
0
0
0
0
0
0
0
0
0
0
0
0
0
0
0
0
0
0
0
0
0
0
0
0
0
0
0
0
0
0
0
0
0
0
0
0
0
0
0
0
0
0
0
0
0
0
0
0
0
0
0
0
0
0
0
0
0
0
0
0
0
0
0
0
0
0
0
0
0
0
0
0
0
0
0
0
0
0
0
0
0
0
0
0
0
0
0
0
0
0
0
0
0
0
0
0
0
0
0
0
0
0
0
0
0
0
0
0
0
0
0
0
0
0
0
0
0
0
0
0
0
0
0
0
0
0
0
0
0
0
0
0
0
0
0
0
0
0
0
0
0
0
0
0
0
0
0
0
0
0
0
0
0
0
0
0
0
0
0
0
0
0
0
0
0
0
0
0
0
0
0
0
0
0
0
0
0
0
0
0
0
0
0
0
0
0
0
0
0
0
0
0
0
0
0
0
0
0
0
0
0
0
0
0
0
0
0
0
0
0
0
0
0
0
0
0
0
0
0
0
0
0
0
0
0
0
0
0
0
0
0
0
0
0
0
0
0
0
0
0
0
0
0
0
0
0
0
0
0
0
0
0
0
0
0
0
0
0
0
0
0
0
0
0
0
0
0
0
0
0
0
0
0
0
0
0
0
0
0
0
0
0
0
0
0
0
0
0
0
0
0
0
0
0
0
0
0
0
0
0
0
0
0
0
0
0
0
0
0
0
0
0
0
0
0
0
0
0
0
0
0
0
0
0
0
0
0
0
  </DataArray>
</PointData>
<CellData>
</CellData>
<UserData>
  <DataArray type = 'Float32' Name='CompteurTemps' format='ascii'>
0
  </DataArray>
  <DataArray type = 'Float32' Name='Temps' format='ascii'>
0
  </DataArray>
</UserData>
    </Piece>
  </UnstructuredGrid>
</VTKFile>
